<?xml version="1.0" encoding="UTF-8"?>

<!-- generated on 2022-03-21 07:03:30 by Eclipse SUMO sumo Version 1.11.0
<configuration xmlns:xsi="http://www.w3.org/2001/XMLSchema-instance" xsi:noNamespaceSchemaLocation="http://sumo.dlr.de/xsd/sumoConfiguration.xsd">

    <input>
        <net-file value="joined_buslanes.net.xml"/>
        <route-files value="solutions/asp/final-3011.rou.xml"/>
        <additional-files value="joined_detectors.add.xml,joined_vtypes.add.xml"/>
    </input>

    <output>
        <summary-output value="asp-summary.xml"/>
        <tripinfo-output value="tripinfo.xml"/>
        <save-state.prefix value="state"/>
    </output>

    <report>
        <verbose value="true"/>
        <log value="sumo_log.txt"/>
        <duration-log.statistics value="true"/>
        <no-step-log value="true"/>
    </report>

    <emissions>
        <phemlight-path value="./PHEMlight/"/>
    </emissions>

</configuration>
-->

<tripinfos xmlns:xsi="http://www.w3.org/2001/XMLSchema-instance" xsi:noNamespaceSchemaLocation="http://sumo.dlr.de/xsd/tripinfo_file.xsd">
    <tripinfo id="Prati_Capraia_10_0" depart="0.00" departLane="b3[0]_0" departPos="0.00" departSpeed="0.00" departDelay="0.00" arrival="40.00" arrivalLane="b10_0" arrivalPos="224.30" arrivalSpeed="11.97" duration="40.00" routeLength="410.63" waitingTime="0.00" waitingCount="0" stopTime="0.00" timeLoss="4.97" rerouteNo="0" devices="tripinfo_Prati_Capraia_10_0" vType="private" speedFactor="0.89" vaporized=""/>
    <tripinfo id="Prati_Capraia_10_1" depart="4.00" departLane="b3[0]_0" departPos="0.00" departSpeed="0.00" departDelay="0.00" arrival="41.00" arrivalLane="b10_0" arrivalPos="224.30" arrivalSpeed="14.06" duration="37.00" routeLength="410.63" waitingTime="0.00" waitingCount="0" stopTime="0.00" timeLoss="6.86" rerouteNo="0" devices="tripinfo_Prati_Capraia_10_1" vType="private" speedFactor="1.02" vaporized=""/>
    <tripinfo id="Prati_Capraia_100_2" depart="9.00" departLane="b3[0]_1" departPos="0.00" departSpeed="0.00" departDelay="0.00" arrival="52.00" arrivalLane="b3[1]b_1" arrivalPos="239.77" arrivalSpeed="15.85" duration="43.00" routeLength="625.48" waitingTime="0.00" waitingCount="0" stopTime="0.00" timeLoss="4.68" rerouteNo="0" devices="tripinfo_Prati_Capraia_100_2" vType="private" speedFactor="1.18" vaporized=""/>
    <tripinfo id="Certosa_9_0" depart="0.00" departLane="b22[0]_1" departPos="0.00" departSpeed="0.00" departDelay="0.00" arrival="65.00" arrivalLane="b2[1][1][1]b_1" arrivalPos="325.74" arrivalSpeed="12.69" duration="65.00" routeLength="603.57" waitingTime="7.00" waitingCount="1" stopTime="0.00" timeLoss="17.96" rerouteNo="0" devices="tripinfo_Certosa_9_0" vType="private" speedFactor="0.94" vaporized=""/>
    <tripinfo id="Borgo_20_3" depart="18.00" departLane="b6_1" departPos="0.00" departSpeed="0.00" departDelay="0.00" arrival="79.00" arrivalLane="b4[1][1][1]_1" arrivalPos="171.54" arrivalSpeed="15.68" duration="61.00" routeLength="552.60" waitingTime="14.00" waitingCount="1" stopTime="0.00" timeLoss="25.62" rerouteNo="0" devices="tripinfo_Borgo_20_3" vType="private" speedFactor="1.14" vaporized=""/>
    <tripinfo id="Borgo_20_4" depart="24.00" departLane="b6_1" departPos="0.00" departSpeed="0.00" departDelay="0.00" arrival="84.00" arrivalLane="b4[1][1][1]_1" arrivalPos="171.54" arrivalSpeed="12.48" duration="60.00" routeLength="552.60" waitingTime="7.00" waitingCount="1" stopTime="0.00" timeLoss="18.20" rerouteNo="0" devices="tripinfo_Borgo_20_4" vType="private" speedFactor="0.97" vaporized=""/>
    <tripinfo id="Borgo_20_6" depart="36.00" departLane="b6_1" departPos="0.00" departSpeed="0.00" departDelay="0.00" arrival="86.00" arrivalLane="b4[1][1][1]_1" arrivalPos="171.54" arrivalSpeed="14.53" duration="50.00" routeLength="552.60" waitingTime="0.00" waitingCount="0" stopTime="0.00" timeLoss="12.08" rerouteNo="0" devices="tripinfo_Borgo_20_6" vType="private" speedFactor="1.07" vaporized=""/>
    <tripinfo id="Borgo_20_7" depart="42.00" departLane="b6_1" departPos="0.00" departSpeed="0.00" departDelay="0.00" arrival="88.00" arrivalLane="b4[1][1][1]_1" arrivalPos="171.54" arrivalSpeed="14.41" duration="46.00" routeLength="552.60" waitingTime="0.00" waitingCount="0" stopTime="0.00" timeLoss="7.49" rerouteNo="0" devices="tripinfo_Borgo_20_7" vType="private" speedFactor="1.06" vaporized=""/>
    <tripinfo id="Borgo_100_2" depart="12.00" departLane="b6_0" departPos="0.00" departSpeed="0.00" departDelay="0.00" arrival="100.00" arrivalLane="b3[1]b_1" arrivalPos="239.77" arrivalSpeed="14.40" duration="88.00" routeLength="798.07" waitingTime="20.00" waitingCount="1" stopTime="0.00" timeLoss="34.15" rerouteNo="0" devices="tripinfo_Borgo_100_2" vType="private" speedFactor="1.09" vaporized=""/>
    <tripinfo id="Borgo_100_0" depart="0.00" departLane="b6_0" departPos="0.00" departSpeed="0.00" departDelay="0.00" arrival="103.00" arrivalLane="b3[1]b_0" arrivalPos="239.77" arrivalSpeed="12.22" duration="103.00" routeLength="798.07" waitingTime="29.00" waitingCount="1" stopTime="0.00" timeLoss="40.31" rerouteNo="0" devices="tripinfo_Borgo_100_0" vType="private" speedFactor="0.94" vaporized=""/>
    <tripinfo id="Pertini_20_0" depart="0.00" departLane="b63[0]_1" departPos="0.00" departSpeed="0.00" departDelay="0.00" arrival="107.00" arrivalLane="b4[1][1][1]_0" arrivalPos="171.54" arrivalSpeed="13.36" duration="107.00" routeLength="896.82" waitingTime="31.00" waitingCount="1" stopTime="0.00" timeLoss="42.88" rerouteNo="0" devices="tripinfo_Pertini_20_0" vType="private" speedFactor="1.01" vaporized=""/>
    <tripinfo id="Pertini_20_1" depart="2.00" departLane="b63[0]_2" departPos="0.00" departSpeed="0.00" departDelay="0.00" arrival="107.00" arrivalLane="b4[1][1][1]_1" arrivalPos="171.54" arrivalSpeed="13.67" duration="105.00" routeLength="883.71" waitingTime="33.00" waitingCount="1" stopTime="0.00" timeLoss="44.01" rerouteNo="0" devices="tripinfo_Pertini_20_1" vType="private" speedFactor="1.05" vaporized=""/>
    <tripinfo id="Gandhi_80_11" depart="17.00" departLane="b1[0]_0" departPos="0.00" departSpeed="0.00" departDelay="0.00" arrival="107.00" arrivalLane="b21_0" arrivalPos="90.26" arrivalSpeed="13.09" duration="90.00" routeLength="513.45" waitingTime="39.00" waitingCount="1" stopTime="0.00" timeLoss="52.43" rerouteNo="0" devices="tripinfo_Gandhi_80_11" vType="private" speedFactor="1.02" vaporized=""/>
    <tripinfo id="Audinot_7_0" depart="0.00" departLane="a131_0" departPos="0.00" departSpeed="0.00" departDelay="0.00" arrival="108.00" arrivalLane="a209_0" arrivalPos="396.59" arrivalSpeed="10.73" duration="108.00" routeLength="874.23" waitingTime="18.00" waitingCount="1" stopTime="0.00" timeLoss="30.45" rerouteNo="0" devices="tripinfo_Audinot_7_0" vType="private" speedFactor="0.83" vaporized=""/>
    <tripinfo id="Pertini_20_9" depart="19.00" departLane="b63[0]_1" departPos="0.00" departSpeed="0.00" departDelay="0.00" arrival="109.00" arrivalLane="b4[1][1][1]_1" arrivalPos="171.54" arrivalSpeed="13.93" duration="90.00" routeLength="883.71" waitingTime="18.00" waitingCount="1" stopTime="0.00" timeLoss="30.97" rerouteNo="0" devices="tripinfo_Pertini_20_9" vType="private" speedFactor="1.08" vaporized=""/>
    <tripinfo id="Pertini_20_2" depart="4.00" departLane="b63[0]_1" departPos="0.00" departSpeed="0.00" departDelay="0.00" arrival="110.00" arrivalLane="b4[1][1][1]_0" arrivalPos="171.54" arrivalSpeed="12.62" duration="106.00" routeLength="896.82" waitingTime="26.00" waitingCount="1" stopTime="0.00" timeLoss="36.93" rerouteNo="0" devices="tripinfo_Pertini_20_2" vType="private" speedFactor="0.94" vaporized=""/>
    <tripinfo id="Pertini_20_11" depart="23.00" departLane="b63[0]_1" departPos="0.00" departSpeed="0.00" departDelay="0.00" arrival="112.00" arrivalLane="b4[1][1][1]_1" arrivalPos="171.54" arrivalSpeed="14.21" duration="89.00" routeLength="896.82" waitingTime="13.00" waitingCount="1" stopTime="0.00" timeLoss="24.95" rerouteNo="0" devices="tripinfo_Pertini_20_11" vType="private" speedFactor="1.02" vaporized=""/>
    <tripinfo id="Prati_Capraia_10_7" depart="34.00" departLane="b3[0]_0" departPos="0.00" departSpeed="0.00" departDelay="0.00" arrival="113.00" arrivalLane="b10_0" arrivalPos="224.30" arrivalSpeed="14.61" duration="79.00" routeLength="410.63" waitingTime="40.00" waitingCount="1" stopTime="0.00" timeLoss="51.34" rerouteNo="0" devices="tripinfo_Prati_Capraia_10_7" vType="private" speedFactor="1.09" vaporized=""/>
    <tripinfo id="Pertini_20_7" depart="15.00" departLane="b63[0]_2" departPos="0.00" departSpeed="0.00" departDelay="0.00" arrival="114.00" arrivalLane="b4[1][1][1]_0" arrivalPos="171.54" arrivalSpeed="11.52" duration="99.00" routeLength="896.82" waitingTime="12.00" waitingCount="1" stopTime="0.00" timeLoss="24.46" rerouteNo="0" devices="tripinfo_Pertini_20_7" vType="private" speedFactor="0.88" vaporized=""/>
    <tripinfo id="Pertini_20_12" depart="25.00" departLane="b63[0]_2" departPos="0.00" departSpeed="0.00" departDelay="0.00" arrival="114.00" arrivalLane="b4[1][1][1]_1" arrivalPos="171.54" arrivalSpeed="12.35" duration="89.00" routeLength="896.82" waitingTime="10.00" waitingCount="1" stopTime="0.00" timeLoss="22.84" rerouteNo="0" devices="tripinfo_Pertini_20_12" vType="private" speedFactor="0.98" vaporized=""/>
    <tripinfo id="Pertini_20_10" depart="21.00" departLane="b63[0]_2" departPos="0.00" departSpeed="0.00" departDelay="0.00" arrival="115.00" arrivalLane="b4[1][1][1]_0" arrivalPos="171.54" arrivalSpeed="11.70" duration="94.00" routeLength="883.71" waitingTime="11.00" waitingCount="1" stopTime="0.00" timeLoss="23.67" rerouteNo="0" devices="tripinfo_Pertini_20_10" vType="private" speedFactor="0.91" vaporized=""/>
    <tripinfo id="Pertini_20_16" depart="34.00" departLane="b63[0]_1" departPos="0.00" departSpeed="0.00" departDelay="0.00" arrival="115.00" arrivalLane="b4[1][1][1]_1" arrivalPos="171.54" arrivalSpeed="15.33" duration="81.00" routeLength="883.71" waitingTime="9.00" waitingCount="1" stopTime="0.00" timeLoss="24.26" rerouteNo="0" devices="tripinfo_Pertini_20_16" vType="private" speedFactor="1.12" vaporized=""/>
    <tripinfo id="Pepoli_8_16" depart="27.00" departLane="a210_0" departPos="0.00" departSpeed="0.00" departDelay="0.00" arrival="116.00" arrivalLane="a134b_0" arrivalPos="157.17" arrivalSpeed="13.16" duration="89.00" routeLength="693.71" waitingTime="25.00" waitingCount="1" stopTime="0.00" timeLoss="39.50" rerouteNo="0" devices="tripinfo_Pepoli_8_16" vType="private" speedFactor="1.03" vaporized=""/>
    <tripinfo id="Borgo_100_8" depart="48.00" departLane="b6_0" departPos="0.00" departSpeed="0.00" departDelay="0.00" arrival="116.00" arrivalLane="b3[1]b_0" arrivalPos="239.77" arrivalSpeed="12.90" duration="68.00" routeLength="798.07" waitingTime="0.00" waitingCount="0" stopTime="0.00" timeLoss="6.43" rerouteNo="0" devices="tripinfo_Borgo_100_8" vType="private" speedFactor="0.95" vaporized=""/>
    <tripinfo id="Pertini_20_14" depart="30.00" departLane="b63[0]_1" departPos="0.00" departSpeed="0.00" departDelay="0.00" arrival="117.00" arrivalLane="b4[1][1][1]_0" arrivalPos="171.54" arrivalSpeed="13.71" duration="87.00" routeLength="896.82" waitingTime="9.00" waitingCount="1" stopTime="0.00" timeLoss="23.25" rerouteNo="0" devices="tripinfo_Pertini_20_14" vType="private" speedFactor="1.02" vaporized=""/>
    <tripinfo id="Pertini_20_17" depart="36.00" departLane="b63[0]_2" departPos="0.00" departSpeed="0.00" departDelay="0.00" arrival="117.00" arrivalLane="b4[1][1][1]_1" arrivalPos="171.54" arrivalSpeed="13.76" duration="81.00" routeLength="883.71" waitingTime="3.00" waitingCount="1" stopTime="0.00" timeLoss="17.99" rerouteNo="0" devices="tripinfo_Pertini_20_17" vType="private" speedFactor="1.01" vaporized=""/>
    <tripinfo id="Gandhi_80_45" depart="70.00" departLane="b1[0]_0" departPos="0.00" departSpeed="0.00" departDelay="0.00" arrival="118.00" arrivalLane="b21_0" arrivalPos="90.26" arrivalSpeed="14.94" duration="48.00" routeLength="513.45" waitingTime="0.00" waitingCount="0" stopTime="0.00" timeLoss="13.55" rerouteNo="0" devices="tripinfo_Gandhi_80_45" vType="private" speedFactor="1.11" vaporized=""/>
    <tripinfo id="Pertini_20_15" depart="32.00" departLane="b63[0]_2" departPos="0.00" departSpeed="0.00" departDelay="0.00" arrival="119.00" arrivalLane="b4[1][1][1]_0" arrivalPos="171.54" arrivalSpeed="11.46" duration="87.00" routeLength="896.82" waitingTime="0.00" waitingCount="0" stopTime="0.00" timeLoss="13.97" rerouteNo="0" devices="tripinfo_Pertini_20_15" vType="private" speedFactor="0.89" vaporized=""/>
    <tripinfo id="Pertini_20_19" depart="40.00" departLane="b63[0]_2" departPos="0.00" departSpeed="0.00" departDelay="0.00" arrival="119.00" arrivalLane="b4[1][1][1]_1" arrivalPos="171.54" arrivalSpeed="15.06" duration="79.00" routeLength="883.71" waitingTime="4.00" waitingCount="1" stopTime="0.00" timeLoss="24.37" rerouteNo="0" devices="tripinfo_Pertini_20_19" vType="private" speedFactor="1.18" vaporized=""/>
    <tripinfo id="Pertini_20_18" depart="38.00" departLane="b63[0]_1" departPos="0.00" departSpeed="0.00" departDelay="0.00" arrival="121.00" arrivalLane="b4[1][1][1]_0" arrivalPos="171.54" arrivalSpeed="12.46" duration="83.00" routeLength="896.82" waitingTime="0.00" waitingCount="0" stopTime="0.00" timeLoss="12.48" rerouteNo="0" devices="tripinfo_Pertini_20_18" vType="private" speedFactor="0.93" vaporized=""/>
    <tripinfo id="Pertini_20_22" depart="47.00" departLane="b63[0]_2" departPos="0.00" departSpeed="0.00" departDelay="0.00" arrival="121.00" arrivalLane="b4[1][1][1]_1" arrivalPos="171.54" arrivalSpeed="13.91" duration="74.00" routeLength="883.71" waitingTime="0.00" waitingCount="0" stopTime="0.00" timeLoss="10.45" rerouteNo="0" devices="tripinfo_Pertini_20_22" vType="private" speedFactor="1.02" vaporized=""/>
    <tripinfo id="Pertini_20_21" depart="45.00" departLane="b63[0]_1" departPos="0.00" departSpeed="0.00" departDelay="0.00" arrival="122.00" arrivalLane="b4[1][1][1]_0" arrivalPos="171.54" arrivalSpeed="13.90" duration="77.00" routeLength="883.71" waitingTime="3.00" waitingCount="1" stopTime="0.00" timeLoss="24.83" rerouteNo="0" devices="tripinfo_Pertini_20_21" vType="private" speedFactor="1.23" vaporized=""/>
    <tripinfo id="Pertini_20_25" depart="53.00" departLane="b63[0]_1" departPos="0.00" departSpeed="0.00" departDelay="0.00" arrival="122.00" arrivalLane="b4[1][1][1]_1" arrivalPos="171.54" arrivalSpeed="16.02" duration="69.00" routeLength="896.82" waitingTime="0.00" waitingCount="0" stopTime="0.00" timeLoss="13.88" rerouteNo="0" devices="tripinfo_Pertini_20_25" vType="private" speedFactor="1.18" vaporized=""/>
    <tripinfo id="Prati_Capraia_100_4" depart="19.00" departLane="b3[0]_1" departPos="0.00" departSpeed="0.00" departDelay="0.00" arrival="123.00" arrivalLane="b3[1]b_0" arrivalPos="239.77" arrivalSpeed="15.12" duration="104.00" routeLength="625.48" waitingTime="51.00" waitingCount="1" stopTime="0.00" timeLoss="63.42" rerouteNo="0" devices="tripinfo_Prati_Capraia_100_4" vType="private" speedFactor="1.12" vaporized=""/>
    <tripinfo id="Pepoli_8_21" depart="36.00" departLane="a210_0" departPos="0.00" departSpeed="0.00" departDelay="0.00" arrival="123.00" arrivalLane="a134b_0" arrivalPos="157.17" arrivalSpeed="13.00" duration="87.00" routeLength="693.71" waitingTime="17.00" waitingCount="1" stopTime="0.00" timeLoss="32.95" rerouteNo="0" devices="tripinfo_Pepoli_8_21" vType="private" speedFactor="0.95" vaporized=""/>
    <tripinfo id="Pertini_20_26" depart="55.00" departLane="b63[0]_2" departPos="0.00" departSpeed="0.00" departDelay="0.00" arrival="124.00" arrivalLane="b4[1][1][1]_0" arrivalPos="171.54" arrivalSpeed="14.75" duration="69.00" routeLength="896.82" waitingTime="0.00" waitingCount="0" stopTime="0.00" timeLoss="10.96" rerouteNo="0" devices="tripinfo_Pertini_20_26" vType="private" speedFactor="1.13" vaporized=""/>
    <tripinfo id="Prati_Capraia_100_3" depart="14.00" departLane="b3[0]_0" departPos="0.00" departSpeed="0.00" departDelay="0.00" arrival="125.00" arrivalLane="b3[1]b_0" arrivalPos="239.77" arrivalSpeed="14.43" duration="111.00" routeLength="625.48" waitingTime="57.00" waitingCount="1" stopTime="0.00" timeLoss="67.84" rerouteNo="0" devices="tripinfo_Prati_Capraia_100_3" vType="private" speedFactor="1.04" vaporized=""/>
    <tripinfo id="Pertini_20_28" depart="60.00" departLane="b63[0]_2" departPos="0.00" departSpeed="0.00" departDelay="0.00" arrival="125.00" arrivalLane="b4[1][1][1]_0" arrivalPos="171.54" arrivalSpeed="14.88" duration="65.00" routeLength="883.71" waitingTime="0.00" waitingCount="0" stopTime="0.00" timeLoss="9.21" rerouteNo="0" devices="tripinfo_Pertini_20_28" vType="private" speedFactor="1.14" vaporized=""/>
    <tripinfo id="Prati_Capraia_10_19" depart="92.00" departLane="b3[0]_0" departPos="0.00" departSpeed="0.00" departDelay="0.00" arrival="125.00" arrivalLane="b10_0" arrivalPos="224.30" arrivalSpeed="14.71" duration="33.00" routeLength="410.63" waitingTime="0.00" waitingCount="0" stopTime="0.00" timeLoss="5.68" rerouteNo="0" devices="tripinfo_Prati_Capraia_10_19" vType="private" speedFactor="1.13" vaporized=""/>
    <tripinfo id="Prati_Capraia_100_9" depart="43.00" departLane="b3[0]_0" departPos="0.00" departSpeed="0.00" departDelay="0.00" arrival="129.00" arrivalLane="b3[1]b_1" arrivalPos="239.77" arrivalSpeed="14.95" duration="86.00" routeLength="625.48" waitingTime="33.00" waitingCount="1" stopTime="0.00" timeLoss="45.47" rerouteNo="0" devices="tripinfo_Prati_Capraia_100_9" vType="private" speedFactor="1.12" vaporized=""/>
    <tripinfo id="Prati_Capraia_100_5" depart="24.00" departLane="b3[0]_0" departPos="0.00" departSpeed="0.00" departDelay="0.00" arrival="131.00" arrivalLane="b3[1]b_0" arrivalPos="239.77" arrivalSpeed="12.23" duration="107.00" routeLength="625.48" waitingTime="48.00" waitingCount="1" stopTime="0.00" timeLoss="58.77" rerouteNo="0" devices="tripinfo_Prati_Capraia_100_5" vType="private" speedFactor="0.94" vaporized=""/>
    <tripinfo id="Prati_Capraia_100_11" depart="53.00" departLane="b3[0]_0" departPos="0.00" departSpeed="0.00" departDelay="0.00" arrival="133.00" arrivalLane="b3[1]b_0" arrivalPos="239.77" arrivalSpeed="14.43" duration="80.00" routeLength="625.48" waitingTime="24.00" waitingCount="1" stopTime="0.00" timeLoss="37.00" rerouteNo="0" devices="tripinfo_Prati_Capraia_100_11" vType="private" speedFactor="1.06" vaporized=""/>
    <tripinfo id="Prati_Capraia_10_21" depart="102.00" departLane="b3[0]_0" departPos="0.00" departSpeed="0.00" departDelay="0.00" arrival="134.00" arrivalLane="b10_0" arrivalPos="224.30" arrivalSpeed="15.54" duration="32.00" routeLength="410.63" waitingTime="0.00" waitingCount="0" stopTime="0.00" timeLoss="6.16" rerouteNo="0" devices="tripinfo_Prati_Capraia_10_21" vType="private" speedFactor="1.19" vaporized=""/>
    <tripinfo id="Prati_Capraia_100_13" depart="63.00" departLane="b3[0]_0" departPos="0.00" departSpeed="0.00" departDelay="0.00" arrival="135.00" arrivalLane="b3[1]b_0" arrivalPos="239.77" arrivalSpeed="14.10" duration="72.00" routeLength="625.48" waitingTime="14.00" waitingCount="1" stopTime="0.00" timeLoss="27.87" rerouteNo="0" devices="tripinfo_Prati_Capraia_100_13" vType="private" speedFactor="1.03" vaporized=""/>
    <tripinfo id="Pertini_30_8" depart="17.00" departLane="b13[0]_0" departPos="0.00" departSpeed="0.00" departDelay="0.00" arrival="137.00" arrivalLane="b70_0" arrivalPos="60.87" arrivalSpeed="14.31" duration="120.00" routeLength="1134.33" waitingTime="24.00" waitingCount="1" stopTime="0.00" timeLoss="40.91" rerouteNo="0" devices="tripinfo_Pertini_30_8" vType="private" speedFactor="1.10" vaporized=""/>
    <tripinfo id="Prati_Capraia_100_18" depart="87.00" departLane="b3[0]_0" departPos="0.00" departSpeed="0.00" departDelay="0.00" arrival="139.00" arrivalLane="b3[1]b_1" arrivalPos="239.77" arrivalSpeed="14.33" duration="52.00" routeLength="625.48" waitingTime="0.00" waitingCount="0" stopTime="0.00" timeLoss="8.08" rerouteNo="0" devices="tripinfo_Prati_Capraia_100_18" vType="private" speedFactor="1.04" vaporized=""/>
    <tripinfo id="Prati_Capraia_100_17" depart="82.00" departLane="b3[0]_1" departPos="0.00" departSpeed="0.00" departDelay="0.00" arrival="143.00" arrivalLane="b3[1]b_1" arrivalPos="239.77" arrivalSpeed="14.96" duration="61.00" routeLength="625.48" waitingTime="0.00" waitingCount="0" stopTime="0.00" timeLoss="21.64" rerouteNo="0" devices="tripinfo_Prati_Capraia_100_17" vType="private" speedFactor="1.15" vaporized=""/>
    <tripinfo id="Prati_Capraia_100_16" depart="77.00" departLane="b3[0]_0" departPos="0.00" departSpeed="0.00" departDelay="0.00" arrival="144.00" arrivalLane="b3[1]b_0" arrivalPos="239.77" arrivalSpeed="10.55" duration="67.00" routeLength="625.48" waitingTime="2.00" waitingCount="1" stopTime="0.00" timeLoss="13.12" rerouteNo="0" devices="tripinfo_Prati_Capraia_100_16" vType="private" speedFactor="0.84" vaporized=""/>
    <tripinfo id="Prati_Capraia_100_12" depart="58.00" departLane="b3[0]_1" departPos="0.00" departSpeed="0.00" departDelay="0.00" arrival="146.00" arrivalLane="b3[1]b_0" arrivalPos="239.77" arrivalSpeed="13.44" duration="88.00" routeLength="625.48" waitingTime="21.00" waitingCount="2" stopTime="0.00" timeLoss="41.74" rerouteNo="0" devices="tripinfo_Prati_Capraia_100_12" vType="private" speedFactor="0.98" vaporized=""/>
    <tripinfo id="Pertini_10_20" depart="43.00" departLane="b63[0]_2" departPos="0.00" departSpeed="0.00" departDelay="0.00" arrival="148.00" arrivalLane="b10_0" arrivalPos="224.30" arrivalSpeed="10.35" duration="105.00" routeLength="949.16" waitingTime="9.00" waitingCount="1" stopTime="0.00" timeLoss="20.88" rerouteNo="0" devices="tripinfo_Pertini_10_20" vType="private" speedFactor="0.82" vaporized=""/>
    <tripinfo id="Prati_Capraia_100_20" depart="97.00" departLane="b3[0]_1" departPos="0.00" departSpeed="0.00" departDelay="0.00" arrival="149.00" arrivalLane="b3[1]b_0" arrivalPos="239.77" arrivalSpeed="13.31" duration="52.00" routeLength="625.48" waitingTime="0.00" waitingCount="0" stopTime="0.00" timeLoss="6.31" rerouteNo="0" devices="tripinfo_Prati_Capraia_100_20" vType="private" speedFactor="0.99" vaporized=""/>
    <tripinfo id="Prati_Capraia_100_8" depart="38.00" departLane="b3[0]_1" departPos="0.00" departSpeed="0.00" departDelay="0.00" arrival="151.00" arrivalLane="b3[1]b_0" arrivalPos="239.77" arrivalSpeed="14.87" duration="113.00" routeLength="625.48" waitingTime="49.00" waitingCount="3" stopTime="0.00" timeLoss="71.46" rerouteNo="0" devices="tripinfo_Prati_Capraia_100_8" vType="private" speedFactor="1.10" vaporized=""/>
    <tripinfo id="Turati_3_2" depart="69.00" departLane="a195_0" departPos="0.00" departSpeed="0.00" departDelay="0.00" arrival="157.00" arrivalLane="a10_0" arrivalPos="94.63" arrivalSpeed="13.60" duration="88.00" routeLength="977.37" waitingTime="1.00" waitingCount="1" stopTime="0.00" timeLoss="15.58" rerouteNo="0" devices="tripinfo_Turati_3_2" vType="ignoring" speedFactor="1.00" vaporized=""/>
    <tripinfo id="Certosa_9_3" depart="109.00" departLane="b22[0]_1" departPos="0.00" departSpeed="0.00" departDelay="0.00" arrival="157.00" arrivalLane="b2[1][1][1]b_2" arrivalPos="325.74" arrivalSpeed="14.77" duration="48.00" routeLength="603.57" waitingTime="0.00" waitingCount="0" stopTime="0.00" timeLoss="6.42" rerouteNo="0" devices="tripinfo_Certosa_9_3" vType="private" speedFactor="1.07" vaporized=""/>
    <tripinfo id="Prati_Capraia_100_10" depart="48.00" departLane="b3[0]_1" departPos="0.00" departSpeed="0.00" departDelay="0.00" arrival="158.00" arrivalLane="b3[1]b_0" arrivalPos="239.77" arrivalSpeed="11.81" duration="110.00" routeLength="625.48" waitingTime="36.00" waitingCount="3" stopTime="0.00" timeLoss="61.42" rerouteNo="0" devices="tripinfo_Prati_Capraia_100_10" vType="private" speedFactor="0.94" vaporized=""/>
    <tripinfo id="Costa_3_21" depart="55.00" departLane="a78[0]_0" departPos="0.00" departSpeed="0.00" departDelay="1.00" arrival="163.00" arrivalLane="a10_0" arrivalPos="94.63" arrivalSpeed="15.19" duration="108.00" routeLength="1257.45" waitingTime="0.00" waitingCount="0" stopTime="0.00" timeLoss="23.90" rerouteNo="0" devices="tripinfo_Costa_3_21" vType="private" speedFactor="1.14" vaporized=""/>
    <tripinfo id="Borgo_20_9" depart="54.00" departLane="b6_1" departPos="0.00" departSpeed="0.00" departDelay="0.00" arrival="169.00" arrivalLane="b4[1][1][1]_1" arrivalPos="171.54" arrivalSpeed="12.14" duration="115.00" routeLength="552.60" waitingTime="60.00" waitingCount="1" stopTime="0.00" timeLoss="68.38" rerouteNo="0" devices="tripinfo_Borgo_20_9" vType="private" speedFactor="0.88" vaporized=""/>
    <tripinfo id="Borgo_20_13" depart="79.00" departLane="b6_1" departPos="0.00" departSpeed="0.00" departDelay="0.00" arrival="171.00" arrivalLane="b4[1][1][1]_1" arrivalPos="171.54" arrivalSpeed="15.04" duration="92.00" routeLength="552.60" waitingTime="42.00" waitingCount="1" stopTime="0.00" timeLoss="54.21" rerouteNo="0" devices="tripinfo_Borgo_20_13" vType="private" speedFactor="1.09" vaporized=""/>
    <tripinfo id="Borgo_20_16" depart="97.00" departLane="b6_1" departPos="0.00" departSpeed="0.00" departDelay="0.00" arrival="172.00" arrivalLane="b4[1][1][1]_1" arrivalPos="171.54" arrivalSpeed="16.51" duration="75.00" routeLength="552.60" waitingTime="29.00" waitingCount="1" stopTime="0.00" timeLoss="41.52" rerouteNo="0" devices="tripinfo_Borgo_20_16" vType="private" speedFactor="1.21" vaporized=""/>
    <tripinfo id="Silvani_7_2" depart="4.00" departLane="a203[0]_1" departPos="0.00" departSpeed="0.00" departDelay="0.00" arrival="175.00" arrivalLane="a209_0" arrivalPos="396.59" arrivalSpeed="15.49" duration="171.00" routeLength="1455.88" waitingTime="52.00" waitingCount="3" stopTime="0.00" timeLoss="80.49" rerouteNo="0" devices="tripinfo_Silvani_7_2" vType="private" speedFactor="1.16" vaporized=""/>
    <tripinfo id="Borgo_20_17" depart="103.00" departLane="b6_1" departPos="0.00" departSpeed="0.00" departDelay="0.00" arrival="176.00" arrivalLane="b4[1][1][1]_1" arrivalPos="171.54" arrivalSpeed="13.46" duration="73.00" routeLength="552.60" waitingTime="21.00" waitingCount="1" stopTime="0.00" timeLoss="34.62" rerouteNo="0" devices="tripinfo_Borgo_20_17" vType="private" speedFactor="1.05" vaporized=""/>
    <tripinfo id="Silvani_7_4" depart="9.00" departLane="a203[0]_1" departPos="0.00" departSpeed="0.00" departDelay="0.00" arrival="178.00" arrivalLane="a209_2" arrivalPos="396.59" arrivalSpeed="15.79" duration="169.00" routeLength="1452.39" waitingTime="47.00" waitingCount="3" stopTime="0.00" timeLoss="78.13" rerouteNo="0" devices="tripinfo_Silvani_7_4" vType="private" speedFactor="1.15" vaporized=""/>
    <tripinfo id="Pepoli_8_23" depart="39.00" departLane="a210_0" departPos="0.00" departSpeed="0.00" departDelay="0.00" arrival="178.00" arrivalLane="a134b_0" arrivalPos="157.17" arrivalSpeed="12.54" duration="139.00" routeLength="693.71" waitingTime="65.00" waitingCount="2" stopTime="0.00" timeLoss="83.39" rerouteNo="0" devices="tripinfo_Pepoli_8_23" vType="private" speedFactor="0.92" vaporized=""/>
    <tripinfo id="Borgo_20_18" depart="109.00" departLane="b6_1" departPos="0.00" departSpeed="0.00" departDelay="0.00" arrival="178.00" arrivalLane="b4[1][1][1]_1" arrivalPos="171.54" arrivalSpeed="14.32" duration="69.00" routeLength="552.60" waitingTime="19.00" waitingCount="1" stopTime="0.00" timeLoss="31.70" rerouteNo="0" devices="tripinfo_Borgo_20_18" vType="private" speedFactor="1.09" vaporized=""/>
    <tripinfo id="Silvani_7_5" depart="11.00" departLane="a203[0]_0" departPos="0.00" departSpeed="0.00" departDelay="0.00" arrival="179.00" arrivalLane="a209_0" arrivalPos="396.59" arrivalSpeed="14.44" duration="168.00" routeLength="1455.88" waitingTime="44.00" waitingCount="3" stopTime="0.00" timeLoss="72.38" rerouteNo="0" devices="tripinfo_Silvani_7_5" vType="private" speedFactor="1.10" vaporized=""/>
    <tripinfo id="Silvani_7_11" depart="25.00" departLane="a203[0]_0" departPos="0.00" departSpeed="0.00" departDelay="0.00" arrival="179.00" arrivalLane="a209_1" arrivalPos="396.59" arrivalSpeed="13.80" duration="154.00" routeLength="1452.39" waitingTime="28.00" waitingCount="2" stopTime="0.00" timeLoss="50.18" rerouteNo="0" devices="tripinfo_Silvani_7_11" vType="private" speedFactor="1.01" vaporized=""/>
    <tripinfo id="Pepoli_8_25" depart="42.00" departLane="a210_0" departPos="0.00" departSpeed="0.00" departDelay="0.00" arrival="180.00" arrivalLane="a134b_0" arrivalPos="157.17" arrivalSpeed="12.53" duration="138.00" routeLength="693.71" waitingTime="63.00" waitingCount="2" stopTime="0.00" timeLoss="83.51" rerouteNo="0" devices="tripinfo_Pepoli_8_25" vType="private" speedFactor="0.94" vaporized=""/>
    <tripinfo id="Malvasia_70_0" depart="0.00" departLane="b52_0" departPos="0.00" departSpeed="0.00" departDelay="0.00" arrival="181.00" arrivalLane="a77[1][1]_0" arrivalPos="464.98" arrivalSpeed="14.22" duration="181.00" routeLength="1958.98" waitingTime="19.00" waitingCount="1" stopTime="0.00" timeLoss="40.53" rerouteNo="0" devices="tripinfo_Malvasia_70_0" vType="private" speedFactor="1.03" vaporized=""/>
    <tripinfo id="Pepoli_8_28" depart="48.00" departLane="a210_0" departPos="0.00" departSpeed="0.00" departDelay="0.00" arrival="181.00" arrivalLane="a134b_0" arrivalPos="157.17" arrivalSpeed="14.48" duration="133.00" routeLength="693.71" waitingTime="59.00" waitingCount="2" stopTime="0.00" timeLoss="89.19" rerouteNo="0" devices="tripinfo_Pepoli_8_28" vType="private" speedFactor="1.16" vaporized=""/>
    <tripinfo id="Silvani_7_10" depart="23.00" departLane="a203[0]_1" departPos="0.00" departSpeed="0.00" departDelay="0.00" arrival="182.00" arrivalLane="a209_0" arrivalPos="396.59" arrivalSpeed="14.12" duration="159.00" routeLength="1455.88" waitingTime="32.00" waitingCount="2" stopTime="0.00" timeLoss="57.89" rerouteNo="0" devices="tripinfo_Silvani_7_10" vType="private" speedFactor="1.04" vaporized=""/>