<?xml version="1.0" encoding="UTF-8"?>

<!-- generated on 2025-04-15 13:00:24 by Eclipse SUMO sumo Version 1.20.0
<configuration xmlns:xsi="http://www.w3.org/2001/XMLSchema-instance" xsi:noNamespaceSchemaLocation="http://sumo.dlr.de/xsd/sumoConfiguration.xsd">

    <input>
        <net-file value="maps/bologna/acosta/run/../netedit/acosta_buslanes.net.xml"/>
        <route-files value="maps/MapTests/setup.rou.xml"/>
        <additional-files value="maps/bologna/acosta/run/../netedit/acosta_vtypes.add.xml,maps/bologna/acosta/run/run.med.add.xml"/>
    </input>

    <output>
        <tripinfo-output value="maps/bologna/acosta/run/tripinfos.xml"/>
    </output>

    <report>
        <log value="maps/bologna/acosta/run/log.txt"/>
        <no-step-log value="true"/>
    </report>

</configuration>
-->

<meandata xmlns:xsi="http://www.w3.org/2001/XMLSchema-instance" xsi:noNamespaceSchemaLocation="http://sumo.dlr.de/xsd/meandata_file.xsd">
</meandata>
