<?xml version="1.0" encoding="UTF-8"?>

<!-- generated on 2024-01-30 16:04:45 by Eclipse SUMO GUI Version 1.11.0
<configuration xmlns:xsi="http://www.w3.org/2001/XMLSchema-instance" xsi:noNamespaceSchemaLocation="http://sumo.dlr.de/xsd/sumoConfiguration.xsd">

    <input>
        <net-file value="/Users/carde/Documents/Workspace/asptraffic/maps/bologna/acosta/run/../netedit/acosta_buslanes.net.xml"/>
        <route-files value="/Users/carde/Documents/Workspace/asptraffic/maps/bologna/acosta/run/routes.xml"/>
        <additional-files value="/Users/carde/Documents/Workspace/asptraffic/maps/bologna/acosta/run/../netedit/acosta_vtypes.add.xml,/Users/carde/Documents/Workspace/asptraffic/maps/bologna/acosta/run/../netedit/acosta_detectors.add.xml,/Users/carde/Documents/Workspace/asptraffic/maps/bologna/acosta/run/../netedit/acosta_bus_stops.add.xml,/Users/carde/Documents/Workspace/asptraffic/maps/bologna/acosta/run/../netedit/acosta_tls.add.xml,/Users/carde/Documents/Workspace/asptraffic/maps/bologna/acosta/run/edge-out.add.xml"/>
    </input>

    <output>
        <tripinfo-output value="/Users/carde/Documents/Workspace/asptraffic/maps/bologna/acosta/run/tripinfos.xml"/>
    </output>

    <report>
        <log value="/Users/carde/Documents/Workspace/asptraffic/maps/bologna/acosta/run/log.txt"/>
        <no-step-log value="true"/>
    </report>

</configuration>
-->

<meandata xmlns:xsi="http://www.w3.org/2001/XMLSchema-instance" xsi:noNamespaceSchemaLocation="http://sumo.dlr.de/xsd/meandata_file.xsd">
    <interval begin="0.00" end="3558.00" id="1">
        <edge id="1" sampledSeconds="587.73" CO_abs="21189.970858" CO2_abs="908200.008376" HC_abs="117.343224" PMx_abs="15.087482" NOx_abs="371.558185" fuel_abs="390.403310" electricity_abs="0"
            CO_normed="107200.527105" CO2_normed="4594603.752324" HC_normed="593.641945" PMx_normed="76.327901" NOx_normed="1879.721002" fuel_normed="1975.058905" electricity_normed="0"
            traveltime="0.03" CO_perVeh="1.065360" CO2_perVeh="45.661238" HC_perVeh="0.005900" PMx_perVeh="0.000759" NOx_perVeh="0.018681" fuel_perVeh="0.019628" electricity_perVeh="0"/>
        <edge id="10" sampledSeconds="0.00" CO_abs="0" CO2_abs="0" HC_abs="0" PMx_abs="0" NOx_abs="0" fuel_abs="0" electricity_abs="0"
            CO_normed="0" CO2_normed="0" HC_normed="0" PMx_normed="0" NOx_normed="0" fuel_normed="0" electricity_normed="0"/>
        <edge id="103" sampledSeconds="21533.53" CO_abs="1530621.214893" CO2_abs="38164765.315323" HC_abs="7859.082876" PMx_abs="793.707106" NOx_abs="16405.821288" fuel_abs="16406.021643" electricity_abs="0"
            CO_normed="11231.338431" CO2_normed="280044.070483" HC_normed="57.668101" PMx_normed="5.824036" NOx_normed="120.382058" fuel_normed="120.383528" electricity_normed="0"
            traveltime="32.49" CO_perVeh="2309.144610" CO2_perVeh="57576.597835" HC_perVeh="11.856466" PMx_perVeh="1.197412" NOx_perVeh="24.750352" fuel_perVeh="24.750654" electricity_perVeh="0"/>
        <edge id="104" sampledSeconds="11983.65" CO_abs="1403631.703117" CO2_abs="27883662.772542" HC_abs="7046.630962" PMx_abs="651.352863" NOx_abs="12506.744011" fuel_abs="11986.577091" electricity_abs="0"
            CO_normed="37531.731274" CO2_normed="745581.719048" HC_normed="188.419982" PMx_normed="17.416535" NOx_normed="334.418034" fuel_normed="320.509283" electricity_normed="0"
            traveltime="21.68" CO_perVeh="2539.700598" CO2_perVeh="50452.091435" HC_perVeh="12.750020" PMx_perVeh="1.178544" NOx_perVeh="22.629430" fuel_perVeh="21.688251" electricity_perVeh="0"/>
        <edge id="109[0]" sampledSeconds="910.56" CO_abs="21880.784930" CO2_abs="2012745.153434" HC_abs="146.336815" PMx_abs="30.612199" NOx_abs="782.174941" fuel_abs="865.193741" electricity_abs="0"
            CO_normed="891.985259" CO2_normed="82050.941624" HC_normed="5.965521" PMx_normed="1.247927" NOx_normed="31.885900" fuel_normed="35.270218" electricity_normed="0"
            traveltime="2.08" CO_perVeh="50.032897" CO2_perVeh="4602.370147" HC_perVeh="0.334616" PMx_perVeh="0.069998" NOx_perVeh="1.788532" fuel_perVeh="1.978364" electricity_perVeh="0"/>
        <edge id="109[1][0]+20003" sampledSeconds="983.17" CO_abs="19638.895385" CO2_abs="1862728.781453" HC_abs="132.296345" PMx_abs="27.258315" NOx_abs="716.379696" fuel_abs="800.709210" electricity_abs="0"
            CO_normed="739.238112" CO2_normed="70115.965334" HC_normed="4.979837" PMx_normed="1.026045" NOx_normed="26.965629" fuel_normed="30.139921" electricity_normed="0"
            traveltime="2.28" CO_perVeh="45.491120" CO2_perVeh="4314.785325" HC_perVeh="0.306448" PMx_perVeh="0.063141" NOx_perVeh="1.659407" fuel_perVeh="1.854746" electricity_perVeh="0"/>
        <edge id="109[1][1]" sampledSeconds="953.15" CO_abs="22623.987299" CO2_abs="1962103.161517" HC_abs="148.576194" PMx_abs="30.389730" NOx_abs="768.292166" fuel_abs="843.424932" electricity_abs="0"
            CO_normed="912.357495" CO2_normed="79125.730635" HC_normed="5.991632" PMx_normed="1.225527" NOx_normed="30.982917" fuel_normed="34.012796" electricity_normed="0"
            traveltime="2.19" CO_perVeh="51.993599" CO2_perVeh="4509.231903" HC_perVeh="0.341452" PMx_perVeh="0.069841" NOx_perVeh="1.765660" fuel_perVeh="1.938328" electricity_perVeh="0"/>
        <edge id="11" sampledSeconds="39200.31" CO_abs="5409287.480601" CO2_abs="96063889.785548" HC_abs="26887.698203" PMx_abs="2325.883513" NOx_abs="43573.546777" fuel_abs="41296.136534" electricity_abs="0"
            CO_normed="161354.386492" CO2_normed="2865503.091856" HC_normed="802.036879" PMx_normed="69.379102" NOx_normed="1299.761370" fuel_normed="1231.828184" electricity_normed="0"
            traveltime="39.90" CO_perVeh="5506.326360" CO2_perVeh="97787.209580" HC_perVeh="27.370045" PMx_perVeh="2.367608" NOx_perVeh="44.355226" fuel_perVeh="42.036961" electricity_perVeh="0"/>
        <edge id="110" sampledSeconds="0.00" CO_abs="0" CO2_abs="0" HC_abs="0" PMx_abs="0" NOx_abs="0" fuel_abs="0" electricity_abs="0"
            CO_normed="0" CO2_normed="0" HC_normed="0" PMx_normed="0" NOx_normed="0" fuel_normed="0" electricity_normed="0"/>
        <edge id="113" sampledSeconds="36511.70" CO_abs="4133492.274661" CO2_abs="87819447.691628" HC_abs="20884.404050" PMx_abs="1996.343443" NOx_abs="38947.530225" fuel_abs="37751.508143" electricity_abs="0"
            CO_normed="52031.420835" CO2_normed="1105450.388374" HC_normed="262.887927" PMx_normed="25.129498" NOx_normed="490.262277" fuel_normed="475.207035" electricity_normed="0"
            traveltime="29.59" CO_perVeh="3349.707106" CO2_perVeh="71167.286259" HC_perVeh="16.924342" PMx_perVeh="1.617800" NOx_perVeh="31.562371" fuel_perVeh="30.593137" electricity_perVeh="0"/>
        <edge id="114" sampledSeconds="78338.78" CO_abs="1512559.931676" CO2_abs="165717839.005358" HC_abs="10703.725380" PMx_abs="2408.514713" NOx_abs="63120.433108" fuel_abs="71235.044658" electricity_abs="0"
            CO_normed="2206.162276" CO2_normed="241709.724799" HC_normed="15.612046" PMx_normed="3.512968" NOx_normed="92.065058" fuel_normed="103.900722" electricity_normed="0"
            traveltime="54.31" CO_perVeh="1048.670224" CO2_perVeh="114893.538928" HC_perVeh="7.420981" PMx_perVeh="1.669843" NOx_perVeh="43.761915" fuel_perVeh="49.387842" electricity_perVeh="0"/>
        <edge id="115" sampledSeconds="0.00" CO_abs="0" CO2_abs="0" HC_abs="0" PMx_abs="0" NOx_abs="0" fuel_abs="0" electricity_abs="0"
            CO_normed="0" CO2_normed="0" HC_normed="0" PMx_normed="0" NOx_normed="0" fuel_normed="0" electricity_normed="0"/>
        <edge id="116" sampledSeconds="3089.35" CO_abs="128664.563266" CO2_abs="9492705.817591" HC_abs="808.722584" PMx_abs="163.612908" NOx_abs="3843.906976" fuel_abs="4080.500688" electricity_abs="0"
            CO_normed="1744.150177" CO2_normed="128681.154433" HC_normed="10.962876" PMx_normed="2.217903" NOx_normed="52.107207" fuel_normed="55.314422" electricity_normed="0"
            traveltime="6.46" CO_perVeh="269.079949" CO2_perVeh="19852.372187" HC_perVeh="1.691305" PMx_perVeh="0.342168" NOx_perVeh="8.038875" fuel_perVeh="8.533670" electricity_perVeh="0"/>
        <edge id="117" sampledSeconds="12467.32" CO_abs="1044246.763856" CO2_abs="24835670.704667" HC_abs="5335.535577" PMx_abs="531.596122" NOx_abs="10798.982714" fuel_abs="10676.212624" electricity_abs="0"
            CO_normed="8219.802817" CO2_normed="195494.324806" HC_normed="41.998742" PMx_normed="4.184466" NOx_normed="85.004342" fuel_normed="84.037955" electricity_normed="0"
            traveltime="32.55" CO_perVeh="2726.178425" CO2_perVeh="64837.615009" HC_perVeh="13.929296" PMx_perVeh="1.387819" NOx_perVeh="28.192526" fuel_perVeh="27.872014" electricity_perVeh="0"/>
        <edge id="118" sampledSeconds="4788.30" CO_abs="183697.650982" CO2_abs="14465101.954592" HC_abs="1175.507301" PMx_abs="247.084187" NOx_abs="5830.028181" fuel_abs="6217.911219" electricity_abs="0"
            CO_normed="1445.978596" CO2_normed="113862.249725" HC_normed="9.253022" PMx_normed="1.944927" NOx_normed="45.891147" fuel_normed="48.944374" electricity_normed="0"
            traveltime="10.77" CO_perVeh="413.130023" CO2_perVeh="32531.542323" HC_perVeh="2.643678" PMx_perVeh="0.555684" NOx_perVeh="13.111543" fuel_perVeh="13.983879" electricity_perVeh="0"/>
        <edge id="119" sampledSeconds="2036.65" CO_abs="84221.460649" CO2_abs="5356811.260961" HC_abs="509.087239" PMx_abs="95.291413" NOx_abs="2189.914039" fuel_abs="2302.664969" electricity_abs="0"
            CO_normed="532.964183" CO2_normed="33898.587283" HC_normed="3.221569" PMx_normed="0.603016" NOx_normed="13.858056" fuel_normed="14.571559" electricity_normed="0"
            traveltime="16.31" CO_perVeh="674.480915" CO2_perVeh="42899.599857" HC_perVeh="4.076985" PMx_perVeh="0.763134" NOx_perVeh="17.537754" fuel_perVeh="18.440711" electricity_perVeh="0"/>
        <edge id="12" sampledSeconds="0.00" CO_abs="0" CO2_abs="0" HC_abs="0" PMx_abs="0" NOx_abs="0" fuel_abs="0" electricity_abs="0"
            CO_normed="0" CO2_normed="0" HC_normed="0" PMx_normed="0" NOx_normed="0" fuel_normed="0" electricity_normed="0"/>
        <edge id="120" sampledSeconds="764.82" CO_abs="43641.033824" CO2_abs="1812092.002964" HC_abs="241.141980" PMx_abs="34.496057" NOx_abs="755.477399" fuel_abs="778.950656" electricity_abs="0"
            CO_normed="276.166048" CO2_normed="11467.150126" HC_normed="1.525977" PMx_normed="0.218295" NOx_normed="4.780758" fuel_normed="4.929299" electricity_normed="0"
            traveltime="21.81" CO_perVeh="1244.638118" CO2_perVeh="51680.690934" HC_perVeh="6.877346" PMx_perVeh="0.983824" NOx_perVeh="21.546143" fuel_perVeh="22.215598" electricity_perVeh="0"/>
        <edge id="121" sampledSeconds="0.00" CO_abs="0" CO2_abs="0" HC_abs="0" PMx_abs="0" NOx_abs="0" fuel_abs="0" electricity_abs="0"
            CO_normed="0" CO2_normed="0" HC_normed="0" PMx_normed="0" NOx_normed="0" fuel_normed="0" electricity_normed="0"/>
        <edge id="122" sampledSeconds="16720.38" CO_abs="301071.165994" CO2_abs="33019843.477190" HC_abs="2128.967809" PMx_abs="466.081129" NOx_abs="12489.788616" fuel_abs="14193.845803" electricity_abs="0"
            CO_normed="1437.453406" CO2_normed="157652.049855" HC_normed="10.164680" PMx_normed="2.225288" NOx_normed="59.632045" fuel_normed="67.768004" electricity_normed="0"
            traveltime="17.01" CO_perVeh="306.272114" CO2_perVeh="33590.255054" HC_perVeh="2.165745" PMx_perVeh="0.474133" NOx_perVeh="12.705547" fuel_perVeh="14.439042" electricity_perVeh="0"/>
        <edge id="124" sampledSeconds="2188.19" CO_abs="140469.069758" CO2_abs="9875240.203062" HC_abs="873.751585" PMx_abs="183.135486" NOx_abs="4097.985288" fuel_abs="4244.919881" electricity_abs="0"
            CO_normed="5389.731538" CO2_normed="378908.279686" HC_normed="33.525434" PMx_normed="7.026822" NOx_normed="157.237751" fuel_normed="162.875561" electricity_normed="0"
            traveltime="2.28" CO_perVeh="146.319709" CO2_perVeh="10286.551192" HC_perVeh="0.910144" PMx_perVeh="0.190763" NOx_perVeh="4.268669" fuel_perVeh="4.421724" electricity_perVeh="0"/>
        <edge id="125" sampledSeconds="0.00" CO_abs="0" CO2_abs="0" HC_abs="0" PMx_abs="0" NOx_abs="0" fuel_abs="0" electricity_abs="0"
            CO_normed="0" CO2_normed="0" HC_normed="0" PMx_normed="0" NOx_normed="0" fuel_normed="0" electricity_normed="0"/>
        <edge id="127" sampledSeconds="2405.31" CO_abs="113160.312139" CO2_abs="4675419.686069" HC_abs="624.446724" PMx_abs="87.831049" NOx_abs="1979.973466" fuel_abs="2009.786640" electricity_abs="0"
            CO_normed="7302.047192" CO2_normed="301697.075107" HC_normed="40.294511" PMx_normed="5.667592" NOx_normed="127.764403" fuel_normed="129.688197" electricity_normed="0"
            traveltime="2.61" CO_perVeh="122.860704" CO2_perVeh="5076.208627" HC_perVeh="0.677976" PMx_perVeh="0.095360" NOx_perVeh="2.149702" fuel_perVeh="2.182071" electricity_perVeh="0"/>
        <edge id="13" sampledSeconds="1782.08" CO_abs="73770.220999" CO2_abs="2860500.118575" HC_abs="401.963628" PMx_abs="50.273949" NOx_abs="1160.040515" fuel_abs="1229.633269" electricity_abs="0"
            CO_normed="3235.415390" CO2_normed="125455.854434" HC_normed="17.629326" PMx_normed="2.204916" NOx_normed="50.877073" fuel_normed="53.929273" electricity_normed="0"
            traveltime="2.99" CO_perVeh="123.832346" CO2_perVeh="4801.699594" HC_perVeh="0.674745" PMx_perVeh="0.084391" NOx_perVeh="1.947270" fuel_perVeh="2.064090" electricity_perVeh="0"/>
        <edge id="131" sampledSeconds="5767.74" CO_abs="316230.302277" CO2_abs="14449165.374438" HC_abs="1777.023007" PMx_abs="263.954727" NOx_abs="5948.926910" fuel_abs="6211.146536" electricity_abs="0"
            CO_normed="978.780074" CO2_normed="44722.327556" HC_normed="5.500152" PMx_normed="0.816979" NOx_normed="18.412818" fuel_normed="19.224427" electricity_normed="0"
            traveltime="37.92" CO_perVeh="2079.154063" CO2_perVeh="95000.512846" HC_perVeh="11.683588" PMx_perVeh="1.735452" NOx_perVeh="39.113062" fuel_perVeh="40.837107" electricity_perVeh="0"/>
        <edge id="133" sampledSeconds="0.00" CO_abs="0" CO2_abs="0" HC_abs="0" PMx_abs="0" NOx_abs="0" fuel_abs="0" electricity_abs="0"
            CO_normed="0" CO2_normed="0" HC_normed="0" PMx_normed="0" NOx_normed="0" fuel_normed="0" electricity_normed="0"/>
        <edge id="134" sampledSeconds="819.01" CO_abs="84275.856238" CO2_abs="4357878.219542" HC_abs="487.056755" PMx_abs="86.088210" NOx_abs="1866.630668" fuel_abs="1873.263585" electricity_abs="0"
            CO_normed="7539.405910" CO2_normed="389860.326223" HC_normed="43.572605" PMx_normed="7.701541" NOx_normed="166.990724" fuel_normed="167.584112" electricity_normed="0"
            traveltime="1.38" CO_perVeh="141.785257" CO2_perVeh="7331.671381" HC_perVeh="0.819422" PMx_perVeh="0.144834" NOx_perVeh="3.140410" fuel_perVeh="3.151569" electricity_perVeh="0"/>
        <edge id="134b" sampledSeconds="5236.78" CO_abs="138406.688324" CO2_abs="13227789.844819" HC_abs="937.863404" PMx_abs="208.738851" NOx_abs="5173.268696" fuel_abs="5686.050892" electricity_abs="0"
            CO_normed="891.012878" CO2_normed="85155.791576" HC_normed="6.037630" PMx_normed="1.343786" NOx_normed="33.303658" fuel_normed="36.604767" electricity_normed="0"
            traveltime="12.44" CO_perVeh="328.699174" CO2_perVeh="31414.403765" HC_perVeh="2.227312" PMx_perVeh="0.495730" NOx_perVeh="12.285889" fuel_perVeh="13.503684" electricity_perVeh="0"/>
        <edge id="135" sampledSeconds="0.00" CO_abs="0" CO2_abs="0" HC_abs="0" PMx_abs="0" NOx_abs="0" fuel_abs="0" electricity_abs="0"
            CO_normed="0" CO2_normed="0" HC_normed="0" PMx_normed="0" NOx_normed="0" fuel_normed="0" electricity_normed="0"/>
        <edge id="136" sampledSeconds="12134.68" CO_abs="498989.761959" CO2_abs="38465061.756107" HC_abs="3175.813151" PMx_abs="663.984695" NOx_abs="15564.147552" fuel_abs="16534.435457" electricity_abs="0"
            CO_normed="2697.008702" CO2_normed="207901.272085" HC_normed="17.165073" PMx_normed="3.588796" NOx_normed="84.123252" fuel_normed="89.367598" electricity_normed="0"
            traveltime="15.67" CO_perVeh="644.323608" CO2_perVeh="49668.248236" HC_perVeh="4.100788" PMx_perVeh="0.857374" NOx_perVeh="20.097302" fuel_perVeh="21.350192" electricity_perVeh="0"/>
        <edge id="137" sampledSeconds="0.00" CO_abs="0" CO2_abs="0" HC_abs="0" PMx_abs="0" NOx_abs="0" fuel_abs="0" electricity_abs="0"
            CO_normed="0" CO2_normed="0" HC_normed="0" PMx_normed="0" NOx_normed="0" fuel_normed="0" electricity_normed="0"/>
        <edge id="138" sampledSeconds="0.00" CO_abs="0" CO2_abs="0" HC_abs="0" PMx_abs="0" NOx_abs="0" fuel_abs="0" electricity_abs="0"
            CO_normed="0" CO2_normed="0" HC_normed="0" PMx_normed="0" NOx_normed="0" fuel_normed="0" electricity_normed="0"/>
        <edge id="14" sampledSeconds="3887.36" CO_abs="147387.628172" CO2_abs="12340509.053218" HC_abs="960.796202" PMx_abs="209.640859" NOx_abs="4950.748612" fuel_abs="5304.637581" electricity_abs="0"
            CO_normed="1905.538569" CO2_normed="159547.420992" HC_normed="12.421899" PMx_normed="2.710395" NOx_normed="64.007017" fuel_normed="68.582361" electricity_normed="0"
            traveltime="6.30" CO_perVeh="238.727622" CO2_perVeh="19988.247458" HC_perVeh="1.556227" PMx_perVeh="0.339561" NOx_perVeh="8.018858" fuel_perVeh="8.592061" electricity_perVeh="0"/>
        <edge id="15" sampledSeconds="21625.91" CO_abs="2447937.158968" CO2_abs="47568615.746713" HC_abs="12262.359084" PMx_abs="1108.713977" NOx_abs="21321.164745" fuel_abs="20448.757427" electricity_abs="0"
            CO_normed="27089.943677" CO2_normed="526415.115131" HC_normed="135.700631" PMx_normed="12.269514" NOx_normed="235.949338" fuel_normed="226.294897" electricity_normed="0"
            traveltime="52.31" CO_perVeh="5920.719719" CO2_perVeh="115052.153291" HC_perVeh="29.658437" PMx_perVeh="2.681599" NOx_perVeh="51.568579" fuel_perVeh="49.458525" electricity_perVeh="0"/>
        <edge id="153" sampledSeconds="2536.09" CO_abs="240042.661235" CO2_abs="5961489.128205" HC_abs="1232.209718" PMx_abs="126.304671" NOx_abs="2568.037069" fuel_abs="2562.684468" electricity_abs="0"
            CO_normed="613.153460" CO2_normed="15227.741885" HC_normed="3.147497" PMx_normed="0.322627" NOx_normed="6.559671" fuel_normed="6.545998" electricity_normed="0"
            traveltime="78.26" CO_perVeh="7407.825981" CO2_perVeh="183974.272844" HC_perVeh="38.026554" PMx_perVeh="3.897820" NOx_perVeh="79.250795" fuel_perVeh="79.085611" electricity_perVeh="0"/>
        <edge id="159" sampledSeconds="10235.36" CO_abs="371297.728261" CO2_abs="29067617.392930" HC_abs="2370.919691" PMx_abs="487.531401" NOx_abs="11663.940228" fuel_abs="12494.905495" electricity_abs="0"
            CO_normed="1650.400516" CO2_normed="129204.159051" HC_normed="10.538624" PMx_normed="2.167054" NOx_normed="51.845652" fuel_normed="55.539253" electricity_normed="0"
            traveltime="19.35" CO_perVeh="701.804535" CO2_perVeh="54941.854378" HC_perVeh="4.481369" PMx_perVeh="0.921502" NOx_perVeh="22.046475" fuel_perVeh="23.617116" electricity_perVeh="0"/>
        <edge id="16" sampledSeconds="3169.30" CO_abs="183858.889642" CO2_abs="12583151.935343" HC_abs="1134.365796" PMx_abs="229.503142" NOx_abs="5197.019261" fuel_abs="5408.938849" electricity_abs="0"
            CO_normed="2034.662919" CO2_normed="139250.664977" HC_normed="12.553388" PMx_normed="2.539782" NOx_normed="57.512489" fuel_normed="59.857684" electricity_normed="0"
            traveltime="7.96" CO_perVeh="462.068634" CO2_perVeh="31623.599158" HC_perVeh="2.850854" PMx_perVeh="0.576780" NOx_perVeh="13.060993" fuel_perVeh="13.593583" electricity_perVeh="0"/>
        <edge id="160" sampledSeconds="17123.83" CO_abs="540829.675835" CO2_abs="32724219.606704" HC_abs="3220.683312" PMx_abs="531.099460" NOx_abs="13033.130346" fuel_abs="14066.850315" electricity_abs="0"
            CO_normed="2403.961856" CO2_normed="145457.579743" HC_normed="14.315782" PMx_normed="2.360712" NOx_normed="57.931637" fuel_normed="62.526472" electricity_normed="0"
            traveltime="23.93" CO_perVeh="755.677130" CO2_perVeh="45724.089250" HC_perVeh="4.500117" PMx_perVeh="0.742082" NOx_perVeh="18.210610" fuel_perVeh="19.654981" electricity_perVeh="0"/>
        <edge id="161" sampledSeconds="15786.61" CO_abs="401000.181466" CO2_abs="37809364.350800" HC_abs="2702.395438" PMx_abs="583.488052" NOx_abs="14710.974333" fuel_abs="16252.623206" electricity_abs="0"
            CO_normed="2106.941589" CO2_normed="198658.568961" HC_normed="14.198969" PMx_normed="3.065772" NOx_normed="77.294637" fuel_normed="85.394794" electricity_normed="0"
            traveltime="15.50" CO_perVeh="393.645012" CO2_perVeh="37115.862680" HC_perVeh="2.652828" PMx_perVeh="0.572786" NOx_perVeh="14.441145" fuel_perVeh="15.954517" electricity_perVeh="0"/>
        <edge id="165" sampledSeconds="0.00" CO_abs="0" CO2_abs="0" HC_abs="0" PMx_abs="0" NOx_abs="0" fuel_abs="0" electricity_abs="0"
            CO_normed="0" CO2_normed="0" HC_normed="0" PMx_normed="0" NOx_normed="0" fuel_normed="0" electricity_normed="0"/>
        <edge id="166" sampledSeconds="0.00" CO_abs="0" CO2_abs="0" HC_abs="0" PMx_abs="0" NOx_abs="0" fuel_abs="0" electricity_abs="0"
            CO_normed="0" CO2_normed="0" HC_normed="0" PMx_normed="0" NOx_normed="0" fuel_normed="0" electricity_normed="0"/>
        <edge id="17" sampledSeconds="5197.69" CO_abs="293312.724681" CO2_abs="15885146.337842" HC_abs="1708.779072" PMx_abs="290.264950" NOx_abs="6534.466118" fuel_abs="6828.374308" electricity_abs="0"
            CO_normed="2229.045372" CO2_normed="120719.999345" HC_normed="12.985956" PMx_normed="2.205884" NOx_normed="49.659017" fuel_normed="51.892587" electricity_normed="0"
            traveltime="13.50" CO_perVeh="762.020694" CO2_perVeh="41269.298004" HC_perVeh="4.439374" PMx_perVeh="0.754103" NOx_perVeh="16.976415" fuel_perVeh="17.739982" electricity_perVeh="0"/>
        <edge id="171" sampledSeconds="3711.38" CO_abs="402188.916303" CO2_abs="9099666.952004" HC_abs="2045.026252" PMx_abs="202.858558" NOx_abs="4002.925782" fuel_abs="3911.716529" electricity_abs="0"
            CO_normed="2340.868091" CO2_normed="52962.971234" HC_normed="11.902707" PMx_normed="1.180702" NOx_normed="23.298308" fuel_normed="22.767441" electricity_normed="0"
            traveltime="50.44" CO_perVeh="5466.082959" CO2_perVeh="123672.066632" HC_perVeh="27.793613" PMx_perVeh="2.757017" NOx_perVeh="54.403101" fuel_perVeh="53.163492" electricity_perVeh="0"/>
        <edge id="173" sampledSeconds="0.00" CO_abs="0" CO2_abs="0" HC_abs="0" PMx_abs="0" NOx_abs="0" fuel_abs="0" electricity_abs="0"
            CO_normed="0" CO2_normed="0" HC_normed="0" PMx_normed="0" NOx_normed="0" fuel_normed="0" electricity_normed="0"/>
        <edge id="179" sampledSeconds="0.00" CO_abs="0" CO2_abs="0" HC_abs="0" PMx_abs="0" NOx_abs="0" fuel_abs="0" electricity_abs="0"
            CO_normed="0" CO2_normed="0" HC_normed="0" PMx_normed="0" NOx_normed="0" fuel_normed="0" electricity_normed="0"/>
        <edge id="18" sampledSeconds="10888.70" CO_abs="1276617.762699" CO2_abs="23546974.658354" HC_abs="6365.329063" PMx_abs="558.955973" NOx_abs="10621.905869" fuel_abs="10122.393904" electricity_abs="0"
            CO_normed="49357.563990" CO2_normed="910390.989709" HC_normed="246.101179" PMx_normed="21.610780" NOx_normed="410.672179" fuel_normed="391.359669" electricity_normed="0"
            traveltime="18.18" CO_perVeh="2131.837341" CO2_perVeh="39321.339023" HC_perVeh="10.629530" PMx_perVeh="0.933406" NOx_perVeh="17.737632" fuel_perVeh="16.903491" electricity_perVeh="0"/>
        <edge id="180" sampledSeconds="15486.99" CO_abs="594336.237706" CO2_abs="40028640.191639" HC_abs="3644.630742" PMx_abs="695.958181" NOx_abs="16306.500933" fuel_abs="17206.597566" electricity_abs="0"
            CO_normed="2911.693271" CO2_normed="196103.005137" HC_normed="17.855292" PMx_normed="3.409546" NOx_normed="79.886647" fuel_normed="84.296281" electricity_normed="0"
            traveltime="19.87" CO_perVeh="762.375025" CO2_perVeh="51346.079267" HC_perVeh="4.675090" PMx_perVeh="0.892729" NOx_perVeh="20.916896" fuel_perVeh="22.071480" electricity_perVeh="0"/>
        <edge id="181" sampledSeconds="6099.48" CO_abs="496465.341749" CO2_abs="18049071.765275" HC_abs="2687.121572" PMx_abs="367.414022" NOx_abs="7727.534339" fuel_abs="7758.633436" electricity_abs="0"
            CO_normed="7722.149263" CO2_normed="280739.891591" HC_normed="41.796178" PMx_normed="5.714852" NOx_normed="120.196051" fuel_normed="120.679774" electricity_normed="0"
            traveltime="11.12" CO_perVeh="904.740650" CO2_perVeh="32891.981681" HC_perVeh="4.896914" PMx_perVeh="0.669562" NOx_perVeh="14.082382" fuel_perVeh="14.139056" electricity_perVeh="0"/>
        <edge id="185" sampledSeconds="0.00" CO_abs="0" CO2_abs="0" HC_abs="0" PMx_abs="0" NOx_abs="0" fuel_abs="0" electricity_abs="0"
            CO_normed="0" CO2_normed="0" HC_normed="0" PMx_normed="0" NOx_normed="0" fuel_normed="0" electricity_normed="0"/>
        <edge id="186" sampledSeconds="1929.15" CO_abs="40409.850724" CO2_abs="3922097.278993" HC_abs="274.433895" PMx_abs="57.346483" NOx_abs="1506.428079" fuel_abs="1685.945073" electricity_abs="0"
            CO_normed="707.262829" CO2_normed="68645.480423" HC_normed="4.803207" PMx_normed="1.003692" NOx_normed="26.365863" fuel_normed="29.507812" electricity_normed="0"
            traveltime="4.85" CO_perVeh="101.624301" CO2_perVeh="9863.446314" HC_perVeh="0.690157" PMx_perVeh="0.144217" NOx_perVeh="3.788425" fuel_perVeh="4.239882" electricity_perVeh="0"/>
        <edge id="187" sampledSeconds="0.00" CO_abs="0" CO2_abs="0" HC_abs="0" PMx_abs="0" NOx_abs="0" fuel_abs="0" electricity_abs="0"
            CO_normed="0" CO2_normed="0" HC_normed="0" PMx_normed="0" NOx_normed="0" fuel_normed="0" electricity_normed="0"/>
        <edge id="188" sampledSeconds="2994.37" CO_abs="89326.578998" CO2_abs="7532656.589893" HC_abs="582.267751" PMx_abs="121.460170" NOx_abs="2981.988324" fuel_abs="3237.964190" electricity_abs="0"
            CO_normed="1072.008353" CO2_normed="90399.418390" HC_normed="6.987796" PMx_normed="1.457644" NOx_normed="35.786845" fuel_normed="38.858811" electricity_normed="0"
            traveltime="7.10" CO_perVeh="211.873495" CO2_perVeh="17866.689767" HC_perVeh="1.381079" PMx_perVeh="0.288091" NOx_perVeh="7.072971" fuel_perVeh="7.680119" electricity_perVeh="0"/>
        <edge id="189[0]" sampledSeconds="313.61" CO_abs="5103.095100" CO2_abs="612794.173386" HC_abs="37.235428" PMx_abs="8.463934" NOx_abs="229.684061" fuel_abs="263.414466" electricity_abs="0"
            CO_normed="1018.409072" CO2_normed="122293.457874" HC_normed="7.430960" PMx_normed="1.689121" NOx_normed="45.837345" fuel_normed="52.568819" electricity_normed="0"
            traveltime="0.39" CO_perVeh="6.423223" CO2_perVeh="771.318849" HC_perVeh="0.046868" PMx_perVeh="0.010653" NOx_perVeh="0.289101" fuel_perVeh="0.331558" electricity_perVeh="0"/>
        <edge id="189[1][0]+20000" sampledSeconds="1068.33" CO_abs="16276.261028" CO2_abs="2024572.768523" HC_abs="119.882611" PMx_abs="27.068877" NOx_abs="752.455742" fuel_abs="870.279628" electricity_abs="0"
            CO_normed="564.953423" CO2_normed="70273.468401" HC_normed="4.161158" PMx_normed="0.939568" NOx_normed="26.117942" fuel_normed="30.207641" electricity_normed="0"
            traveltime="2.28" CO_perVeh="34.733017" CO2_perVeh="4320.373075" HC_perVeh="0.255826" PMx_perVeh="0.057764" NOx_perVeh="1.605716" fuel_perVeh="1.857149" electricity_perVeh="0"/>
        <edge id="189[1][1]" sampledSeconds="10853.93" CO_abs="741522.352703" CO2_abs="22483213.497853" HC_abs="3899.975933" PMx_abs="438.851319" NOx_abs="9438.709780" fuel_abs="9664.848873" electricity_abs="0"
            CO_normed="4372.490050" CO2_normed="132575.406460" HC_normed="22.996752" PMx_normed="2.587748" NOx_normed="55.656670" fuel_normed="56.990130" electricity_normed="0"
            traveltime="26.42" CO_perVeh="1805.082204" CO2_perVeh="54730.715023" HC_perVeh="9.493682" PMx_perVeh="1.068292" NOx_perVeh="22.976579" fuel_perVeh="23.527068" electricity_perVeh="0"/>
        <edge id="19" sampledSeconds="11738.33" CO_abs="1444925.897173" CO2_abs="24850154.456927" HC_abs="7162.886788" PMx_abs="607.041053" NOx_abs="11303.215683" fuel_abs="10682.665138" electricity_abs="0"
            CO_normed="21136.075727" CO2_normed="363502.894819" HC_normed="104.777219" PMx_normed="8.879670" NOx_normed="165.341090" fuel_normed="156.263805" electricity_normed="0"
            traveltime="119.81" CO_perVeh="14748.272834" CO2_perVeh="253644.050967" HC_perVeh="73.111160" PMx_perVeh="6.196032" NOx_perVeh="115.371251" fuel_perVeh="109.037329" electricity_perVeh="0"/>
        <edge id="190" sampledSeconds="0.00" CO_abs="0" CO2_abs="0" HC_abs="0" PMx_abs="0" NOx_abs="0" fuel_abs="0" electricity_abs="0"
            CO_normed="0" CO2_normed="0" HC_normed="0" PMx_normed="0" NOx_normed="0" fuel_normed="0" electricity_normed="0"/>
        <edge id="191" sampledSeconds="0.00" CO_abs="0" CO2_abs="0" HC_abs="0" PMx_abs="0" NOx_abs="0" fuel_abs="0" electricity_abs="0"
            CO_normed="0" CO2_normed="0" HC_normed="0" PMx_normed="0" NOx_normed="0" fuel_normed="0" electricity_normed="0"/>
        <edge id="194" sampledSeconds="326.09" CO_abs="14434.663836" CO2_abs="952635.926501" HC_abs="88.121186" PMx_abs="16.945074" NOx_abs="389.024321" fuel_abs="409.497191" electricity_abs="0"
            CO_normed="82.889081" CO2_normed="5470.381426" HC_normed="0.506024" PMx_normed="0.097305" NOx_normed="2.233919" fuel_normed="2.351482" electricity_normed="0"
            traveltime="16.27" CO_perVeh="720.168724" CO2_perVeh="47528.547097" HC_perVeh="4.396508" PMx_perVeh="0.845417" NOx_perVeh="19.409053" fuel_perVeh="20.430477" electricity_perVeh="0"/>