<?xml version="1.0" encoding="UTF-8"?>

<!-- generated on 2025-04-15 10:40:16 by Eclipse SUMO sumo Version 1.20.0
<configuration xmlns:xsi="http://www.w3.org/2001/XMLSchema-instance" xsi:noNamespaceSchemaLocation="http://sumo.dlr.de/xsd/sumoConfiguration.xsd">

    <input>
        <net-file value="maps/MapTests/pollution_test.net.xml"/>
        <route-files value="maps/MapTests/routes.rou.xml"/>
    </input>

    <output>
        <tripinfo-output value="maps/MapTests/tripinfo.xml"/>
    </output>

    <time>
        <begin value="0"/>
        <end value="3600"/>
    </time>

    <processing>
        <collision.check-junctions value="true"/>
    </processing>

    <report>
        <log value="maps/MapTests/log.txt"/>
        <no-step-log value="true"/>
    </report>

    <traci_server>
        <remote-port value="49774"/>
    </traci_server>

    <gui_only>
        <start value="true"/>
    </gui_only>

</configuration>
-->

<tripinfos xmlns:xsi="http://www.w3.org/2001/XMLSchema-instance" xsi:noNamespaceSchemaLocation="http://sumo.dlr.de/xsd/tripinfo_file.xsd">
</tripinfos>
