<?xml version="1.0" encoding="UTF-8"?>

<!-- generated on 2025-04-15 12:58:05 by Eclipse SUMO sumo Version 1.20.0
<configuration xmlns:xsi="http://www.w3.org/2001/XMLSchema-instance" xsi:noNamespaceSchemaLocation="http://sumo.dlr.de/xsd/sumoConfiguration.xsd">

    <input>
        <net-file value="maps/MapTests/pollution_test.net.xml"/>
        <route-files value="maps/MapTests/setup.rou.xml"/>
    </input>

    <output>
        <tripinfo-output value="maps/MapTests/tripinfo.xml"/>
    </output>

    <time>
        <begin value="0"/>
        <end value="3600"/>
    </time>

    <report>
        <log value="maps/MapTests/log.txt"/>
        <no-step-log value="true"/>
    </report>

</configuration>
-->

<tripinfos xmlns:xsi="http://www.w3.org/2001/XMLSchema-instance" xsi:noNamespaceSchemaLocation="http://sumo.dlr.de/xsd/tripinfo_file.xsd">
</tripinfos>
